                         Program Version 6.1.0  -  RELEASE   -
|  1> ! B3LYP def2-SVP SP
|  2>
|  3> * xyz 0 1
|  4> Zn    3.114549    2.501846    1.165701
|  5> Zn    3.637976    7.455799    6.403295
|  6>  O    2.051823    3.457212    2.546210
|  7>  O    4.700702    6.500434    5.022785
|  8>  O    3.200974    0.649654    1.793852
|  9>  O    3.551551    9.307991    5.775144
| 10>  O    2.879734    5.125958    1.406319
| 11>  O    3.872791    4.831687    6.162676
| 12>  O    1.023581    0.370215    1.699239
| 13>  O    5.728944    9.587430    5.869756
| 14>  N    5.094956    2.796411    1.111885
| 15>  N    1.657568    7.161234    6.457110
| 16>  N    1.500199    1.341007    6.902167
| 17>  N    5.252326    8.616638    0.666829
| 18>  N    7.204905    2.288631    1.250398
| 19>  N   -0.452381    7.669014    6.318597
| 20>  N    1.341144    2.033324    4.840373
| 21>  N    5.411381    7.924321    2.728623
| 22>  C    5.964558    1.860464    1.443407
| 23>  C    0.787967    8.097182    6.125588
| 24>  C    7.144504    3.558016    0.762198
| 25>  C   -0.391979    6.399629    6.806798
| 26>  C    5.837118    3.870858    0.682723
| 27>  C    0.915407    6.086788    6.886272
| 28>  C    2.175281    4.712778    2.312328
| 29>  C    4.577244    5.244867    5.256667
| 30>  C    1.398484    5.647918    3.180492
| 31>  C    5.354041    4.309727    4.388504
| 32>  C    1.899313    2.247476    6.027191
| 33>  C    4.853212    7.710169    1.541804
| 34>  C    0.540774    0.934841    4.948609
| 35>  C    6.211751    9.022805    2.620386
| 36>  C    0.636751    0.514361    6.217930
| 37>  C    6.115774    9.443284    1.351066
| 38>  C    2.157253   -0.046806    1.924796
| 39>  C    4.595272   10.004452    5.644200
| 40>  C    1.893730    9.854467    2.403913
| 41>  C    4.858795    0.103178    5.165083
| 42>  H    5.730080    0.980851    1.782498
| 43>  H    1.022445    8.976794    5.786497
| 44>  H    2.512819    2.973136    6.226256
| 45>  H    4.239706    6.984509    1.342740
| 46>  H   -0.047572    1.971088    0.647906
| 47>  H    6.800097    7.986557    6.921089
| 48>  H    1.464989    2.509211    4.121318
| 49>  H    5.287536    7.448434    3.447677
| 50>  H   -0.171358    4.127058    0.521504
| 51>  H    6.923883    5.830587    7.047492
| 52>  H    0.010036    0.530242    4.244693
| 53>  H    6.742489    9.427403    3.324303
| 54>  H    5.476875    4.716050    0.371638
| 55>  H    1.275650    5.241595    7.197358
| 56>  H    0.170474   -0.248589    6.594109
| 57>  H    6.582050   10.206234    0.974887
| 58>  H    0.449511    5.462405    3.073012
| 59>  H    6.303014    4.495240    4.495983
| 60>  H    1.579490    6.560002    2.906494
| 61>  H    5.173035    3.397643    4.662501
| 62>  H    2.446549    9.880529    3.194116
| 63>  H    4.305976    0.077116    4.374879
| 64>  H    2.362641    9.370098    1.696969
| 65>  H    4.389884    0.587547    5.872027
| 66>  H    1.660342    5.514452    4.091042
| 67>  H    5.092183    4.443193    3.477953
| 68>  H    1.051075    9.413268    2.593895
| 69>  H    5.701450    0.544378    4.975101
| 70>  N    2.350445    2.694922   -0.666829
| 71>  N    4.402080    7.262723    8.235824
| 72>  H    7.893641    4.127058    0.521504
| 73>  H   -1.141116    5.830587    7.047492
| 74>  C    2.355958   -1.457093    2.403913
| 75>  C    4.396567   11.414738    5.165083
| 76>  C    1.695024   11.264753    1.924796
| 77>  C    5.057501   -1.307108    5.644200
| 78>  N   -0.860094    2.288631    1.250398
| 79>  N    7.612619    7.669014    6.318597
| 80>  C    1.486997    1.868276   -1.351066
| 81>  C    2.749559    3.601391   -1.541804
| 82>  C    4.002965    6.356254    9.110800
| 83>  C    5.265527    8.089369    8.920061
| 84>  H    1.513304   -1.898292    2.593895
| 85>  H    2.824869   -1.941462    1.696969
| 86>  H    2.908777   -1.431031    3.194116
| 87>  H    3.843748   11.388676    4.374879
| 88>  H    3.927656   11.899107    5.872027
| 89>  H    5.239221   11.855938    4.975101
| 90>  O    0.561352   11.681775    1.699239
| 91>  O    2.738746   11.961214    1.793852
| 92>  O    4.013779   -2.003569    5.775144
| 93>  O    6.191172   -1.724130    5.869756
| 94>  C   -2.100441    1.860464    1.443407
| 95>  C   -0.920496    3.558016    0.762198
| 96>  C    7.673020    6.399629    6.806798
| 97>  C    8.852966    8.097182    6.125588
| 98>  C    1.391021    2.288755   -2.620386
| 99>  H    1.020721    1.105326   -0.974887
|100>  N    2.191391    3.387239   -2.728623
|101>  H    3.363065    4.327051   -1.342740
|102>  H    3.389459    5.630594    8.911735
|103>  N    4.561134    6.570406   10.297618
|104>  H    5.731804    8.852320    8.543882
|105>  C    5.361504    7.668890   10.189382
|106>  H   -2.334919    0.980851    1.782498
|107>  N   -2.970043    2.796411    1.111885
|108>  C   -2.227881    3.870858    0.682723
|109>  C    8.980406    6.086788    6.886272
|110>  N    9.722568    7.161234    6.457110
|111>  H    9.087444    8.976794    5.786497
|112>  H    0.860283    1.884157   -3.324303
|113>  H    5.892242    8.073488   10.893298
|114>  H   -2.588125    4.716050    0.371638
|115>  H    9.340650    5.241595    7.197358
|116>  H    8.017428    1.971088    0.647906
|117>  H   -1.264903    7.986557    6.921089
|118> *
|119>
|120>                          ****END OF INPUT****

CARTESIAN COORDINATES (ANGSTROEM)
---------------------------------
  Zn     3.114549    2.501846    1.165701
  Zn     3.637976    7.455799    6.403295
  O      2.051823    3.457212    2.546210
  O      4.700702    6.500434    5.022785
  O      3.200974    0.649654    1.793852
  O      3.551551    9.307991    5.775144
  O      2.879734    5.125958    1.406319
  O      3.872791    4.831687    6.162676
  O      1.023581    0.370215    1.699239
  O      5.728944    9.587430    5.869756
  N      5.094956    2.796411    1.111885
  N      1.657568    7.161234    6.457110
  N      1.500199    1.341007    6.902167
  N      5.252326    8.616638    0.666829
  N      7.204905    2.288631    1.250398
  N     -0.452381    7.669014    6.318597
  N      1.341144    2.033324    4.840373
  N      5.411381    7.924321    2.728623
  C      5.964558    1.860464    1.443407
  C      0.787967    8.097182    6.125588
  C      7.144504    3.558016    0.762198
  C     -0.391979    6.399629    6.806798
  C      5.837118    3.870858    0.682723
  C      0.915407    6.086788    6.886272
  C      2.175281    4.712778    2.312328
  C      4.577244    5.244867    5.256667
  C      1.398484    5.647918    3.180492
  C      5.354041    4.309727    4.388504
  C      1.899313    2.247476    6.027191
  C      4.853212    7.710169    1.541804
  C      0.540774    0.934841    4.948609
  C      6.211751    9.022805    2.620386
  C      0.636751    0.514361    6.217930
  C      6.115774    9.443284    1.351066
  C      2.157253   -0.046806    1.924796
  C      4.595272   10.004452    5.644200
  C      1.893730    9.854467    2.403913
  C      4.858795    0.103178    5.165083
  H      5.730080    0.980851    1.782498
  H      1.022445    8.976794    5.786497
  H      2.512819    2.973136    6.226256
  H      4.239706    6.984509    1.342740
  H     -0.047572    1.971088    0.647906
  H      6.800097    7.986557    6.921089
  H      1.464989    2.509211    4.121318
  H      5.287536    7.448434    3.447677
  H     -0.171358    4.127058    0.521504
  H      6.923883    5.830587    7.047492
  H      0.010036    0.530242    4.244693
  H      6.742489    9.427403    3.324303
  H      5.476875    4.716050    0.371638
  H      1.275650    5.241595    7.197358
  H      0.170474   -0.248589    6.594109
  H      6.582050   10.206234    0.974887
  H      0.449511    5.462405    3.073012
  H      6.303014    4.495240    4.495983
  H      1.579490    6.560002    2.906494
  H      5.173035    3.397643    4.662501
  H      2.446549    9.880529    3.194116
  H      4.305976    0.077116    4.374879
  H      2.362641    9.370098    1.696969
  H      4.389884    0.587547    5.872027
  H      1.660342    5.514452    4.091042
  H      5.092183    4.443193    3.477953
  H      1.051075    9.413268    2.593895
  H      5.701450    0.544378    4.975101
  N      2.350445    2.694922   -0.666829
  N      4.402080    7.262723    8.235824
  H      7.893641    4.127058    0.521504
  H     -1.141116    5.830587    7.047492
  C      2.355958   -1.457093    2.403913
  C      4.396567   11.414738    5.165083
  C      1.695024   11.264753    1.924796
  C      5.057501   -1.307108    5.644200
  N     -0.860094    2.288631    1.250398
  N      7.612619    7.669014    6.318597
  C      1.486997    1.868276   -1.351066
  C      2.749559    3.601391   -1.541804
  C      4.002965    6.356254    9.110800
  C      5.265527    8.089369    8.920061
  H      1.513304   -1.898292    2.593895
  H      2.824869   -1.941462    1.696969
  H      2.908777   -1.431031    3.194116
  H      3.843748   11.388676    4.374879
  H      3.927656   11.899107    5.872027
  H      5.239221   11.855938    4.975101
  O      0.561352   11.681775    1.699239
  O      2.738746   11.961214    1.793852
  O      4.013779   -2.003569    5.775144
  O      6.191172   -1.724130    5.869756
  C     -2.100441    1.860464    1.443407
  C     -0.920496    3.558016    0.762198
  C      7.673020    6.399629    6.806798
  C      8.852966    8.097182    6.125588
  C      1.391021    2.288755   -2.620386
  H      1.020721    1.105326   -0.974887
  N      2.191391    3.387239   -2.728623
  H      3.363065    4.327051   -1.342740
  H      3.389459    5.630594    8.911735
  N      4.561134    6.570406   10.297618
  H      5.731804    8.852320    8.543882
  C      5.361504    7.668890   10.189382
  H     -2.334919    0.980851    1.782498
  N     -2.970043    2.796411    1.111885
  C     -2.227881    3.870858    0.682723
  C      8.980406    6.086788    6.886272
  N      9.722568    7.161234    6.457110
  H      9.087444    8.976794    5.786497
  H      0.860283    1.884157   -3.324303
  H      5.892242    8.073488   10.893298
  H     -2.588125    4.716050    0.371638
  H      9.340650    5.241595    7.197358
  H      8.017428    1.971088    0.647906
  H     -1.264903    7.986557    6.921089

 Total Charge           Charge          ....    0
 Multiplicity           Mult            ....    1
 Number of Electrons    NEL             ....  532
 Basis Dimension        Dim             .... 1198

ORBITAL ENERGIES
----------------

  NO   OCC          E(Eh)            E(eV)
   0   2.0000    -347.249308     -9449.1341
   1   2.0000    -347.249304     -9449.1340
   2   2.0000     -42.208306     -1148.5464
   3   2.0000     -42.208303     -1148.5463
   4   2.0000     -37.202153     -1012.3220
   5   2.0000     -37.202149     -1012.3220
   6   2.0000     -37.201159     -1012.2950
   7   2.0000     -37.201156     -1012.2949
   8   2.0000     -37.201002     -1012.2907
   9   2.0000     -37.200998     -1012.2906
  10   2.0000     -19.125792      -520.4393
  11   2.0000     -19.125731      -520.4376
  12   2.0000     -19.123243      -520.3699
  13   2.0000     -19.123166      -520.3678
  14   2.0000     -19.122306      -520.3444
  15   2.0000     -19.122053      -520.3375
  16   2.0000     -19.120291      -520.2896
  17   2.0000     -19.120053      -520.2831
  18   2.0000     -19.111628      -520.0538
  19   2.0000     -19.111549      -520.0517
  20   2.0000     -19.109801      -520.0041
  21   2.0000     -19.109599      -519.9986
  22   2.0000     -14.435774      -392.8174
  23   2.0000     -14.435764      -392.8171
  24   2.0000     -14.391909      -391.6238
  25   2.0000     -14.391890      -391.6232
  26   2.0000     -14.382560      -391.3693
  27   2.0000     -14.382534      -391.3686
  28   2.0000     -14.382511      -391.3680
  29   2.0000     -14.382478      -391.3671
  30   2.0000     -14.354307      -390.6005
  31   2.0000     -14.354280      -390.5998
  32   2.0000     -14.321706      -389.7134
  33   2.0000     -14.321697      -389.7132
  34   2.0000     -14.317846      -389.6084
  35   2.0000     -14.317838      -389.6082
  36   2.0000     -14.316410      -389.5693
  37   2.0000     -14.316340      -389.5674
  38   2.0000     -10.299926      -280.2752
  39   2.0000     -10.299905      -280.2747
  40   2.0000     -10.295412      -280.1524
  41   2.0000     -10.295392      -280.1519
  42   2.0000     -10.294589      -280.1300
  43   2.0000     -10.294584      -280.1299
  44   2.0000     -10.293749      -280.1072
  45   2.0000     -10.293745      -280.1071
  46   2.0000     -10.250999      -278.9439
  47   2.0000     -10.250926      -278.9419
  48   2.0000     -10.249918      -278.9144
  49   2.0000     -10.249912      -278.9143
  50   2.0000     -10.249813      -278.9116
  51   2.0000     -10.249791      -278.9110
  52   2.0000     -10.248672      -278.8805
  53   2.0000     -10.248642      -278.8797
  54   2.0000     -10.241705      -278.6910
  55   2.0000     -10.241684      -278.6904
  56   2.0000     -10.234090      -278.4838
  57   2.0000     -10.234027      -278.4820
  58   2.0000     -10.228655      -278.3359
  59   2.0000     -10.228613      -278.3347
  60   2.0000     -10.221740      -278.1477
  61   2.0000     -10.221728      -278.1474
  62   2.0000     -10.215659      -277.9822
  63   2.0000     -10.215603      -277.9807
  64   2.0000     -10.208153      -277.7780
  65   2.0000     -10.208132      -277.7774
  66   2.0000     -10.206053      -277.7208
  67   2.0000     -10.206037      -277.7204
  68   2.0000     -10.182843      -277.0893
  69   2.0000     -10.182821      -277.0886
  70   2.0000     -10.161682      -276.5134
  71   2.0000     -10.161678      -276.5133
  72   2.0000     -10.147540      -276.1286
  73   2.0000     -10.147537      -276.1285
  74   2.0000      -4.805841      -130.7736
  75   2.0000      -4.805836      -130.7734
  76   2.0000      -3.199639       -87.0666
  77   2.0000      -3.199634       -87.0665
  78   2.0000      -3.198392       -87.0327
  79   2.0000      -3.198387       -87.0325
  80   2.0000      -3.198350       -87.0315
  81   2.0000      -3.198345       -87.0314
  82   2.0000      -1.086131       -29.5551
  83   2.0000      -1.086125       -29.5550
  84   2.0000      -1.069385       -29.0994
  85   2.0000      -1.068928       -29.0870
  86   2.0000      -1.063301       -28.9339
  87   2.0000      -1.063277       -28.9332
  88   2.0000      -1.056180       -28.7401
  89   2.0000      -1.056150       -28.7393
  90   2.0000      -1.043600       -28.3978
  91   2.0000      -1.043521       -28.3956
  92   2.0000      -1.038558       -28.2606
  93   2.0000      -1.038550       -28.2604
  94   2.0000      -1.023388       -27.8478
  95   2.0000      -1.023338       -27.8464
  96   2.0000      -0.966866       -26.3098
  97   2.0000      -0.966760       -26.3069
  98   2.0000      -0.966225       -26.2923
  99   2.0000      -0.966182       -26.2912
 100   2.0000      -0.958506       -26.0823
 101   2.0000      -0.958500       -26.0821
 102   2.0000      -0.934053       -25.4169
 103   2.0000      -0.934043       -25.4166
 104   2.0000      -0.887801       -24.1583
 105   2.0000      -0.887781       -24.1578
 106   2.0000      -0.875864       -23.8335
 107   2.0000      -0.875860       -23.8334
 108   2.0000      -0.851740       -23.1770
 109   2.0000      -0.851695       -23.1758
 110   2.0000      -0.810212       -22.0470
 111   2.0000      -0.810204       -22.0468
 112   2.0000      -0.778123       -21.1738
 113   2.0000      -0.778066       -21.1723
 114   2.0000      -0.776340       -21.1253
 115   2.0000      -0.776295       -21.1241
 116   2.0000      -0.773327       -21.0433
 117   2.0000      -0.773312       -21.0429
 118   2.0000      -0.772513       -21.0212
 119   2.0000      -0.772508       -21.0210
 120   2.0000      -0.770166       -20.9573
 121   2.0000      -0.770105       -20.9556
 122   2.0000      -0.752631       -20.4801
 123   2.0000      -0.752626       -20.4800
 124   2.0000      -0.683875       -18.6092
 125   2.0000      -0.683866       -18.6090
 126   2.0000      -0.658994       -17.9321
 127   2.0000      -0.658985       -17.9319
 128   2.0000      -0.653066       -17.7708
 129   2.0000      -0.652762       -17.7626
 130   2.0000      -0.636399       -17.3173
 131   2.0000      -0.636313       -17.3150
 132   2.0000      -0.635230       -17.2855
 133   2.0000      -0.635226       -17.2854
 134   2.0000      -0.625030       -17.0079
 135   2.0000      -0.624996       -17.0070
 136   2.0000      -0.622798       -16.9472
 137   2.0000      -0.622757       -16.9461
 138   2.0000      -0.617437       -16.8013
 139   2.0000      -0.617400       -16.8003
 140   2.0000      -0.615263       -16.7422
 141   2.0000      -0.615254       -16.7419
 142   2.0000      -0.607333       -16.5264
 143   2.0000      -0.606834       -16.5128
 144   2.0000      -0.591824       -16.1044
 145   2.0000      -0.591819       -16.1042
 146   2.0000      -0.554629       -15.0922
 147   2.0000      -0.554271       -15.0825
 148   2.0000      -0.550150       -14.9703
 149   2.0000      -0.549699       -14.9581
 150   2.0000      -0.547633       -14.9019
 151   2.0000      -0.547592       -14.9007
 152   2.0000      -0.529885       -14.4189
 153   2.0000      -0.529796       -14.4165
 154   2.0000      -0.526103       -14.3160
 155   2.0000      -0.526087       -14.3156
 156   2.0000      -0.515060       -14.0155
 157   2.0000      -0.514667       -14.0048
 158   2.0000      -0.501603       -13.6493
 159   2.0000      -0.498734       -13.5713
 160   2.0000      -0.498584       -13.5672
 161   2.0000      -0.497747       -13.5444
 162   2.0000      -0.495519       -13.4838
 163   2.0000      -0.494600       -13.4588
 164   2.0000      -0.491758       -13.3814
 165   2.0000      -0.491617       -13.3776
 166   2.0000      -0.489673       -13.3247
 167   2.0000      -0.489255       -13.3133
 168   2.0000      -0.485914       -13.2224
 169   2.0000      -0.485344       -13.2069
 170   2.0000      -0.484658       -13.1882
 171   2.0000      -0.484448       -13.1825
 172   2.0000      -0.482218       -13.1218
 173   2.0000      -0.481980       -13.1153
 174   2.0000      -0.480784       -13.0828
 175   2.0000      -0.480092       -13.0640
 176   2.0000      -0.480075       -13.0635
 177   2.0000      -0.477422       -12.9913
 178   2.0000      -0.477100       -12.9825
 179   2.0000      -0.475615       -12.9421
 180   2.0000      -0.475531       -12.9399
 181   2.0000      -0.475211       -12.9312
 182   2.0000      -0.472984       -12.8706
 183   2.0000      -0.472899       -12.8682
 184   2.0000      -0.469816       -12.7843
 185   2.0000      -0.469474       -12.7750
 186   2.0000      -0.467253       -12.7146
 187   2.0000      -0.466539       -12.6952
 188   2.0000      -0.466154       -12.6847
 189   2.0000      -0.465523       -12.6675
 190   2.0000      -0.462130       -12.5752
 191   2.0000      -0.461158       -12.5487
 192   2.0000      -0.460295       -12.5253
 193   2.0000      -0.460011       -12.5175
 194   2.0000      -0.459759       -12.5107
 195   2.0000      -0.459435       -12.5019
 196   2.0000      -0.457584       -12.4515
 197   2.0000      -0.457544       -12.4504
 198   2.0000      -0.455633       -12.3984
 199   2.0000      -0.455296       -12.3892
 200   2.0000      -0.454209       -12.3597
 201   2.0000      -0.453587       -12.3427
 202   2.0000      -0.452009       -12.2998
 203   2.0000      -0.451192       -12.2776
 204   2.0000      -0.450028       -12.2459
 205   2.0000      -0.450020       -12.2457
 206   2.0000      -0.446604       -12.1527
 207   2.0000      -0.446065       -12.1380
 208   2.0000      -0.443646       -12.0722
 209   2.0000      -0.443175       -12.0594
 210   2.0000      -0.423040       -11.5115
 211   2.0000      -0.422776       -11.5043
 212   2.0000      -0.418112       -11.3774
 213   2.0000      -0.416464       -11.3326
 214   2.0000      -0.411052       -11.1853
 215   2.0000      -0.411000       -11.1839
 216   2.0000      -0.407495       -11.0885
 217   2.0000      -0.405407       -11.0317
 218   2.0000      -0.405351       -11.0302
 219   2.0000      -0.399164       -10.8618
 220   2.0000      -0.393622       -10.7110
 221   2.0000      -0.393513       -10.7080
 222   2.0000      -0.390854       -10.6357
 223   2.0000      -0.390823       -10.6348
 224   2.0000      -0.388624       -10.5750
 225   2.0000      -0.388442       -10.5701
 226   2.0000      -0.360088        -9.7985
 227   2.0000      -0.358542        -9.7564
 228   2.0000      -0.351016        -9.5516
 229   2.0000      -0.350706        -9.5432
 230   2.0000      -0.313877        -8.5410
 231   2.0000      -0.313415        -8.5285
 232   2.0000      -0.307012        -8.3542
 233   2.0000      -0.306857        -8.3500
 234   2.0000      -0.302945        -8.2435
 235   2.0000      -0.302838        -8.2406
 236   2.0000      -0.298352        -8.1186
 237   2.0000      -0.298068        -8.1108
 238   2.0000      -0.296118        -8.0578
 239   2.0000      -0.295560        -8.0426
 240   2.0000      -0.294715        -8.0196
 241   2.0000      -0.293469        -7.9857
 242   2.0000      -0.290739        -7.9114
 243   2.0000      -0.290716        -7.9108
 244   2.0000      -0.285517        -7.7693
 245   2.0000      -0.285492        -7.7686
 246   2.0000      -0.279516        -7.6060
 247   2.0000      -0.278426        -7.5763
 248   2.0000      -0.278242        -7.5713
 249   2.0000      -0.277879        -7.5615
 250   2.0000      -0.277685        -7.5562
 251   2.0000      -0.277650        -7.5553
 252   2.0000      -0.270892        -7.3713
 253   2.0000      -0.270307        -7.3554
 254   2.0000      -0.265956        -7.2370
 255   2.0000      -0.265831        -7.2336
 256   2.0000      -0.261549        -7.1171
 257   2.0000      -0.261544        -7.1170
 258   2.0000      -0.259894        -7.0721
 259   2.0000      -0.259850        -7.0709
 260   2.0000      -0.259094        -7.0503
 261   2.0000      -0.259018        -7.0482
 262   2.0000      -0.254840        -6.9346
 263   2.0000      -0.254828        -6.9342
 264   2.0000      -0.251013        -6.8304
 265   2.0000      -0.250974        -6.8294
 266   0.0000      -0.238283        -6.4840
 267   0.0000      -0.238172        -6.4810
 268   0.0000      -0.057635        -1.5683
 269   0.0000      -0.057630        -1.5682
 270   0.0000      -0.009158        -0.2492

MULLIKEN ATOMIC CHARGES
-----------------------
   0 Zn:    0.805061
   1 Zn:    0.805068
   2 O :   -0.467212
   3 O :   -0.467164
   4 O :   -0.438290
   5 O :   -0.438357
   6 O :   -0.334848
   7 O :   -0.334906
   8 O :   -0.318866
   9 O :   -0.318702
  10 N :   -0.272429
  11 N :   -0.272439
  12 N :   -0.189437
  13 N :   -0.189449
  14 N :   -0.057102
  15 N :   -0.057089
  16 N :    0.067204
  17 N :    0.067204
  18 C :    0.254166
  19 C :    0.254177
  20 C :    0.060796
  21 C :    0.060800
  22 C :    0.165392
  23 C :    0.165372
  24 C :    0.109060
  25 C :    0.109073
  26 C :    0.302852
  27 C :    0.302857
  28 C :    0.201151
  29 C :    0.201173
  30 C :    0.152273
  31 C :    0.152313
  32 C :    0.124386
  33 C :    0.124393
  34 C :    0.095773
  35 C :    0.095732
  36 C :    0.244440
  37 C :    0.244426
  38 H :   -0.028049
  39 H :   -0.028048
  40 H :   -0.068442
  41 H :   -0.068444
  42 H :    0.183973
  43 H :    0.183967
  44 H :    0.012007
  45 H :    0.012004
  46 H :   -0.049734
  47 H :   -0.049736
  48 H :   -0.058170
  49 H :   -0.058173
  50 H :   -0.054140
  51 H :   -0.054140
  52 H :   -0.065801
  53 H :   -0.065807
  54 H :   -0.034482
  55 H :   -0.034482
  56 H :   -0.053306
  57 H :   -0.053312
  58 H :   -0.029813
  59 H :   -0.029810
  60 H :    0.018713
  61 H :    0.018712
  62 H :   -0.038292
  63 H :   -0.038288
  64 H :   -0.025366
  65 H :   -0.025365
  66 N :   -0.314870
  67 N :   -0.314853
  68 H :   -0.046152
  69 H :   -0.046152
  70 C :    0.286104
  71 C :    0.286104
  72 C :    0.053805
  73 C :    0.053794
  74 N :   -0.051788
  75 N :   -0.051754
  76 C :    0.134690
  77 C :    0.243108
  78 C :    0.243044
  79 C :    0.134623
  80 H :   -0.044568
  81 H :   -0.022739
  82 H :   -0.042957
  83 H :   -0.042959
  84 H :   -0.022743
  85 H :   -0.044566
  86 O :   -0.198616
  87 O :   -0.244092
  88 O :   -0.243855
  89 O :   -0.198851
  90 C :    0.186608
  91 C :    0.069115
  92 C :    0.069100
  93 C :    0.186631
  94 C :    0.124779
  95 H :   -0.052595
  96 N :   -0.176301
  97 H :   -0.054865
  98 H :   -0.054858
  99 N :   -0.176328
 100 H :   -0.052583
 101 C :    0.124755
 102 H :   -0.049431
 103 N :   -0.167763
 104 C :    0.105090
 105 C :    0.105074
 106 N :   -0.167777
 107 H :   -0.049433
 108 H :   -0.070321
 109 H :   -0.070311
 110 H :   -0.073638
 111 H :   -0.073636
 112 H :    0.193951
 113 H :    0.193949
Sum of atomic charges:   -0.0000000

LOEWDIN ATOMIC CHARGES
----------------------
   0 Zn:    0.635534
   1 Zn:    0.635540
   2 O :   -0.294867
   3 O :   -0.294823
   4 O :   -0.284474
   5 O :   -0.284537
   6 O :   -0.259682
   7 O :   -0.259733
   8 O :   -0.242502
   9 O :   -0.242352
  10 N :   -0.061825
  11 N :   -0.061835
  12 N :   -0.118533
  13 N :   -0.118543
  14 N :    0.080991
  15 N :    0.081002
  16 N :    0.173655
  17 N :    0.173655
  18 C :    0.089238
  19 C :    0.089249
  20 C :    0.003719
  21 C :    0.003722
  22 C :    0.023564
  23 C :    0.023551
  24 C :    0.043269
  25 C :    0.043278
  26 C :   -0.032789
  27 C :   -0.032788
  28 C :    0.084865
  29 C :    0.084883
  30 C :    0.064317
  31 C :    0.064350
  32 C :    0.022580
  33 C :    0.022587
  34 C :    0.042654
  35 C :    0.042622
  36 C :    0.024086
  37 C :    0.024075
  38 H :   -0.003112
  39 H :   -0.003111
  40 H :   -0.018205
  41 H :   -0.018206
  42 H :    0.115742
  43 H :    0.115739
  44 H :   -0.011349
  45 H :   -0.011351
  46 H :   -0.002960
  47 H :   -0.002962
  48 H :   -0.002151
  49 H :   -0.002152
  50 H :   -0.002027
  51 H :   -0.002028
  52 H :   -0.003910
  53 H :   -0.003912
  54 H :    0.019608
  55 H :    0.019609
  56 H :    0.011545
  57 H :    0.011542
  58 H :    0.016680
  59 H :    0.016681
  60 H :    0.032936
  61 H :    0.032935
  62 H :    0.010849
  63 H :    0.010851
  64 H :    0.014522
  65 H :    0.014522
  66 N :   -0.131635
  67 N :   -0.131619
  68 H :    0.002858
  69 H :    0.002858
  70 C :   -0.024545
  71 C :   -0.024545
  72 C :    0.039462
  73 C :    0.039451
  74 N :    0.076987
  75 N :    0.077012
  76 C :    0.048034
  77 C :    0.087451
  78 C :    0.087395
  79 C :    0.047978
  80 H :    0.010998
  81 H :    0.023939
  82 H :    0.014020
  83 H :    0.014018
  84 H :    0.023937
  85 H :    0.011000
  86 O :   -0.141439
  87 O :   -0.169710
  88 O :   -0.169488
  89 O :   -0.141661
  90 C :    0.062495
  91 C :    0.023309
  92 C :    0.023296
  93 C :    0.062514
  94 C :    0.021970
  95 H :   -0.010423
  96 N :   -0.118572
  97 H :   -0.009804
  98 H :   -0.009801
  99 N :   -0.118599
 100 H :   -0.010419
 101 C :    0.021948
 102 H :   -0.007897
 103 N :   -0.106688
 104 C :    0.004847
 105 C :    0.004835
 106 N :   -0.106700
 107 H :   -0.007897
 108 H :   -0.004486
 109 H :   -0.004482
 110 H :   -0.008142
 111 H :   -0.008142
 112 H :    0.145029
 113 H :    0.145027

  Mayer bond orders larger than 0.100000
B(  0-Zn,  2-O ) :   0.4534 B(  0-Zn,  4-O ) :   0.4677 B(  0-Zn, 10-N ) :   0.4354
B(  0-Zn, 66-N ) :   0.5028 B(  1-Zn,  3-O ) :   0.4535 B(  1-Zn,  5-O ) :   0.4676
B(  1-Zn, 11-N ) :   0.4354 B(  1-Zn, 67-N ) :   0.5028 B(  2-O , 24-C ) :   1.3386
B(  2-O , 44-H ) :   0.1288 B(  3-O , 25-C ) :   1.3387 B(  3-O , 45-H ) :   0.1288
B(  4-O , 34-C ) :   1.4021 B(  5-O , 35-C ) :   1.4020 B(  6-O , 24-C ) :   1.7843
B(  6-O , 41-H ) :   0.1070 B(  7-O , 25-C ) :   1.7842 B(  7-O , 40-H ) :   0.1070
B(  8-O , 34-C ) :   1.7812 B(  9-O , 35-C ) :   1.7813 B( 10-N , 18-C ) :   1.4987
B( 10-N , 22-C ) :   1.2686 B( 11-N , 19-C ) :   1.4987 B( 11-N , 23-C ) :   1.2686
B( 12-N , 28-C ) :   1.5217 B( 12-N , 32-C ) :   1.4255 B( 13-N , 29-C ) :   1.5216
B( 13-N , 33-C ) :   1.4255 B( 14-N , 18-C ) :   1.2801 B( 14-N , 20-C ) :   1.1838
B( 14-N ,112-H ) :   0.9034 B( 15-N , 19-C ) :   1.2801 B( 15-N , 21-C ) :   1.1838
B( 15-N ,113-H ) :   0.9034 B( 16-N , 28-C ) :   1.2539 B( 16-N , 30-C ) :   1.2331
B( 16-N , 44-H ) :   0.9527 B( 17-N , 29-C ) :   1.2539 B( 17-N , 31-C ) :   1.2331
B( 17-N , 45-H ) :   0.9527 B( 18-C , 38-H ) :   0.9912 B( 19-C , 39-H ) :   0.9912
B( 20-C , 22-C ) :   1.5836 B( 20-C , 68-H ) :   1.0075 B( 21-C , 23-C ) :   1.5836
B( 21-C , 69-H ) :   1.0075 B( 22-C , 50-H ) :   1.0162 B( 23-C , 51-H ) :   1.0162
B( 24-C , 26-C ) :   1.0295 B( 25-C , 27-C ) :   1.0295 B( 26-C , 54-H ) :   0.9026
B( 26-C , 56-H ) :   0.9203 B( 26-C , 62-H ) :   0.9100 B( 27-C , 55-H ) :   0.9026
B( 27-C , 57-H ) :   0.9203 B( 27-C , 63-H ) :   0.9100 B( 28-C , 40-H ) :   0.9737
B( 29-C , 41-H ) :   0.9737 B( 30-C , 32-C ) :   1.3908 B( 30-C , 48-H ) :   1.0048
B( 31-C , 33-C ) :   1.3908 B( 31-C , 49-H ) :   1.0048 B( 32-C , 52-H ) :   1.0140
B( 33-C , 53-H ) :   1.0140 B( 34-C , 70-C ) :   1.0237 B( 35-C , 71-C ) :   1.0237
B( 36-C , 58-H ) :   0.9326 B( 36-C , 60-H ) :   0.9179 B( 36-C , 64-H ) :   0.9301
B( 36-C , 72-C ) :   0.8968 B( 37-C , 59-H ) :   0.9326 B( 37-C , 61-H ) :   0.9179
B( 37-C , 65-H ) :   0.9301 B( 37-C , 73-C ) :   0.8968 B( 42-H , 74-N ) :   0.8474
B( 43-H , 75-N ) :   0.8474 B( 46-H , 91-C ) :   1.0007 B( 47-H , 92-C ) :   1.0007
B( 66-N , 76-C ) :   1.2954 B( 66-N , 77-C ) :   1.3268 B( 67-N , 78-C ) :   1.3269
B( 67-N , 79-C ) :   1.2954 B( 70-C , 80-H ) :   0.9291 B( 70-C , 81-H ) :   0.9149
B( 70-C , 82-H ) :   0.9234 B( 71-C , 83-H ) :   0.9234 B( 71-C , 84-H ) :   0.9149
B( 71-C , 85-H ) :   0.9291 B( 72-C , 86-O ) :   1.8019 B( 72-C , 87-O ) :   1.6269
B( 73-C , 88-O ) :   1.6270 B( 73-C , 89-O ) :   1.8018 B( 74-N , 90-C ) :   1.2596
B( 74-N , 91-C ) :   1.2249 B( 75-N , 92-C ) :   1.2249 B( 75-N , 93-C ) :   1.2596
B( 76-C , 94-C ) :   1.2870 B( 76-C , 95-H ) :   0.9914 B( 77-C , 96-N ) :   1.4456
B( 77-C , 97-H ) :   0.9935 B( 78-C , 98-H ) :   0.9935 B( 78-C , 99-N ) :   1.4456
B( 79-C ,100-H ) :   0.9914 B( 79-C ,101-C ) :   1.2871 B( 86-O , 87-O ) :   0.1998
B( 88-O , 89-O ) :   0.1998 B( 90-C ,102-H ) :   0.9978 B( 90-C ,103-N ) :   1.5747
B( 91-C ,104-C ) :   1.4429 B( 92-C ,105-C ) :   1.4429 B( 93-C ,106-N ) :   1.5747
B( 93-C ,107-H ) :   0.9978 B( 94-C , 96-N ) :   1.5058 B( 94-C ,108-H ) :   1.0165
B( 99-N ,101-C ) :   1.5058 B(101-C ,109-H ) :   1.0165 B(103-N ,104-C ) :   1.4096
B(104-C ,110-H ) :   1.0147 B(105-C ,106-N ) :   1.4096 B(105-C ,111-H ) :   1.0147

FINAL SINGLE POINT ENERGY     -6732.694212435384

DIPOLE MOMENT
-------------

Method             : SCF
Type of density    : Electron Density
Multiplicity       :   1
Irrep              :   0
Energy             : -6732.6942124353836334 Eh
Basis              : AO
                                X                 Y                 Z
Electronic contribution:     -0.000468453       0.000688833      -0.001616159
Nuclear contribution   :      0.000000912      -0.000000295      -0.000003466
                        -----------------------------------------
Total Dipole Moment    :     -0.000467540       0.000688538      -0.001619626
                        -----------------------------------------
Magnitude (a.u.)       :      0.001820952
Magnitude (Debye)      :      0.004628492

Rotational constants in cm-1:             0.001256             0.000825             0.000736
Rotational constants in MHz :            37.665941            24.727825            22.065497

                             ****ORCA TERMINATED NORMALLY****
TOTAL RUN TIME: 0 days 1 hours 36 minutes 23 seconds 314 msec
